 Gaussian 16, Revision A.03,
 Gaussian 16:  ES64L-G16RevA.03 25-Dec-2016

 -------------------------------
 #mp2/6-311++g(2df,2pd) opt freq
 -------------------------------

 ---------------
 C6H4OH2_meta_C1
 ---------------
 Symbolic Z-matrix:
 Charge =  0 Multiplicity = 1

 SCF Done:  E(RHF) =  -380.551131770     A.U. after   15 cycles
 E2 =    -0.1417685594D+01 EUMP2 =    -0.38196881736417D+03
 SCF Done:  E(RHF) =  -380.552913918     A.U. after   12 cycles
 E2 =    -0.1416277141D+01 EUMP2 =    -0.38196919105938D+03
 SCF Done:  E(RHF) =  -380.552864512     A.U. after    9 cycles
 E2 =    -0.1416330978D+01 EUMP2 =    -0.38196919549040D+03
 Optimization completed.
    -- Stationary point found.
 Normal termination of Gaussian 16 at Mon Sept 11 09:58:44 2017.

 ----------------------------------------------------------------------
 #N Geom=AllCheck Guess=TCheck SCRF=Check GenChk RMP2(FC)/6-311++G(2df,
 2pd) Freq
 ----------------------------------------------------------------------

 Structure from the checkpoint file:  "/scratch-local/aubhfc.C6H4OH2metaC1comG1.71432/Gau-17228.chk"
 ---------------
 C6H4OH2_meta_C1
 ---------------
 Charge =  0 Multiplicity = 1

                         Standard orientation:
 ---------------------------------------------------------------------
 Center     Atomic      Atomic             Coordinates (Angstroms)
 Number     Number       Type             X           Y           Z
 ---------------------------------------------------------------------
      1          6           0       -1.199916    1.111755    0.000014
      2          6           0       -1.211272   -0.280979   -0.000009
      3          6           0       -0.020996   -0.998390    0.000014
      4          6           0        1.192566   -0.317895   -0.000004
      5          6           0        1.221561    1.072593   -0.000017
      6          6           0        0.019065    1.775970    0.000005
      7          1           0       -2.137322    1.647672    0.000024
      8          1           0       -0.015433   -2.080870    0.000013
      9          1           0        0.036563    2.856816    0.000014
     10          8           0       -2.430922   -0.896744   -0.000032
     11          1           0       -2.295749   -1.848902    0.000280
     12          1           0        2.167361    1.598715   -0.000079
     13          8           0        2.324698   -1.084707   -0.000081
     14          1           0        3.088318   -0.500149    0.000628
 ---------------------------------------------------------------------

 SCF Done:  E(RHF) =  -380.552864512     A.U. after    1 cycles
 E2 =    -0.1416330974D+01 EUMP2 =    -0.38196919548659D+03
 E2 =    -0.1416330974D+01 EUMP2 =    -0.38196919548659D+03

 The electronic state is 1-A.
 Alpha  occ. eigenvalues --  -20.59678 -20.59441 -11.31113 -11.30930 -11.24774
 Alpha  occ. eigenvalues --  -11.22710 -11.22680 -11.22064  -1.41352  -1.41015
 Alpha  occ. eigenvalues --   -1.14864  -1.02195  -1.00763  -0.85628  -0.83934
 Alpha  occ. eigenvalues --   -0.76015  -0.69590  -0.68242  -0.66692  -0.60846
 Alpha  occ. eigenvalues --   -0.60619  -0.59378  -0.58183  -0.56025  -0.52936
 Alpha  occ. eigenvalues --   -0.50935  -0.46981  -0.33713  -0.31447
 Alpha virt. eigenvalues --    0.03769   0.04456   0.04984   0.06588   0.07242
 Alpha virt. eigenvalues --    0.08875   0.10811   0.12457   0.12524   0.13193
 Alpha virt. eigenvalues --    0.14943   0.14947   0.15227   0.16318   0.16731

 Mulliken charges:
               1
     1  C    0.114730
     2  C   -0.480902
     3  C    0.741943
     4  C   -0.535847
     5  C    0.366895
     6  C   -0.226713
     7  H    0.076677
     8  H    0.046933
     9  H    0.061488
    10  O   -0.292742
    11  H    0.209063
    12  H    0.006398
    13  O   -0.292064
    14  H    0.204141
 Sum of Mulliken charges =   0.00000

 Dipole moment (field-independent basis, Debye):
    X=              1.3797    Y=              0.2298    Z=              0.0016  Tot=              1.3987
 Quadrupole moment (field-independent basis, Debye-Ang):
   XX=            -43.3974   YY=            -40.4175   ZZ=            -51.1786
   XY=              5.6320   XZ=              0.0028   YZ=             -0.0019

  Exact polarizability:  97.341   1.148  88.126   0.001  -0.000  46.952
 Approx polarizability:  84.051   0.724  81.148   0.001   0.000  50.428

                      1                      2                      3
                      A                      A                      A
 Frequencies --    220.5182               232.2551               282.0777
 Red. masses --      5.2558                 3.9736                 1.1215
 Frc consts  --      0.1506                 0.1263                 0.0526
 IR Inten    --      2.6672                 1.2075                 5.3609

                      4                      5                      6
                      A                      A                      A
 Frequencies --    307.6851               327.1134               453.6178
 Red. masses --      1.1125                 5.1496                 3.0575
 Frc consts  --      0.0621                 0.3247                 0.3707
 IR Inten    --    191.1969                12.0870                 5.4628

                      7                      8                      9
                      A                      A                      A
 Frequencies --    472.5297               523.1484               538.8411
 Red. masses --      3.5799                 6.8706                 7.4456
 Frc consts  --      0.4709                 1.1079                 1.2737
 IR Inten    --      6.6928                 1.8961                 2.8185

                     10                     11                     12
                      A                      A                      A
 Frequencies --    610.5321               635.4080               752.5362
 Red. masses --      5.0063                 4.1381                 7.5512
 Frc consts  --      1.0995                 0.9844                 2.5195
 IR Inten    --      1.0327                 5.3487                 4.3638

                     13                     14                     15
                      A                      A                      A
 Frequencies --    758.1848               819.4364               852.7205
 Red. masses --      1.3003                 1.3055                 1.4025
 Frc consts  --      0.4404                 0.5165                 0.6009
 IR Inten    --     63.5732                22.4202                 0.9938

                     16                     17                     18
                      A                      A                      A
 Frequencies --    931.3908               976.8097              1017.3296
 Red. masses --      1.2101                 2.8230                 6.1266
 Frc consts  --      0.6185                 1.5870                 3.7359
 IR Inten    --      0.0963                61.1080                 0.7132

                     19                     20                     21
                      A                      A                      A
 Frequencies --   1095.3107              1168.9078              1177.7382
 Red. masses --      1.5508                 1.1901                 1.2270
 Frc consts  --      1.0961                 0.9580                 1.0028
 IR Inten    --     15.5082               103.4825                51.2544

                     22                     23                     24
                      A                      A                      A
 Frequencies --   1197.7113              1232.7187              1334.8781
 Red. masses --      1.3551                 1.5697                 2.5246
 Frc consts  --      1.1453                 1.4054                 2.6505
 IR Inten    --    215.9994                15.7478                81.7765

                     25                     26                     27
                      A                      A                      A
 Frequencies --   1355.1863              1471.5422              1518.9259
 Red. masses --      1.7062                 6.9757                 3.0921
 Frc consts  --      1.8462                 8.8999                 4.2031
 IR Inten    --      3.7669                10.8269                81.4984

                     28                     29                     30
                      A                      A                      A
 Frequencies --   1536.1513              1661.7014              1674.5602
 Red. masses --      2.8554                 6.5564                 6.2709
 Frc consts  --      3.9700                10.6665                10.3606
 IR Inten    --     58.2237               109.5246               103.1873

                     31                     32                     33
                      A                      A                      A
 Frequencies --   3214.3437              3221.5097              3233.4140
 Red. masses --      1.0886                 1.0922                 1.0927
 Frc consts  --      6.6266                 6.6786                 6.7307
 IR Inten    --      6.3886                 2.8998                 5.7127

                     34                     35                     36
                      A                      A                      A
 Frequencies --   3254.7000              3864.9183              3866.0559
 Red. masses --      1.0958                 1.0659                 1.0659
 Frc consts  --      6.8395                 9.3808                 9.3868
 IR Inten    --      1.3345                88.5178                64.8773

 - Thermochemistry -
 -------------------
 Temperature   298.150 Kelvin.  Pressure   1.00000 Atm.
 Atom     1 has atomic number  6 and mass  12.00000

 Molecular mass:   110.03678 amu.
 Principal axes and moments of inertia in atomic units:
                           1         2         3
     Eigenvalues --   477.84039 982.536421460.37680
           X            0.99981   0.01960   0.00000
           Y           -0.01960   0.99981  -0.00001
           Z           -0.00000   0.00001   1.00000
 This molecule is an asymmetric top.
 Rotational symmetry number  1.
 Warning -- assumption of classical behavior for rotation
           may cause significant error
 Rotational temperatures (Kelvin)      0.18126     0.08815     0.05931
 Rotational constants (GHZ):           3.77687     1.83682     1.23581
 Zero-point vibrational energy     285862.1 (Joules/Mol)
                                   68.32268 (Kcal/Mol)
 Warning -- explicit consideration of  10 degrees of freedom as
           vibrations may cause significant error
 Vibrational temperatures:    317.28   334.16   405.85   442.69   470.64
          (Kelvin)            652.65   679.86   752.69   775.27   878.42
                              914.21  1082.73  1090.86  1178.99  1226.87
                             1340.06  1405.41  1463.71  1575.91  1681.80
                             1694.50  1723.24  1773.61  1920.59  1949.81
                             2117.22  2185.40  2210.18  2390.82  2409.32
                             4624.72  4635.03  4652.16  4682.79  5560.76
                             5562.39

 Zero-point correction=                           0.108879 (Hartree/Particle)
 Thermal correction to Energy=                    0.115777
 Thermal correction to Enthalpy=                  0.116721
 Thermal correction to Gibbs Free Energy=         0.078230
 Sum of electronic and zero-point Energies=           -381.860316
 Sum of electronic and thermal Energies=              -381.853419
 Sum of electronic and thermal Enthalpies=            -381.852474
 Sum of electronic and thermal Free Energies=         -381.890965

                     E (Thermal)             CV                S
                      KCal/Mol        Cal/Mol-Kelvin    Cal/Mol-Kelvin
 Total                   72.651             27.083             81.011
 Electronic               0.000              0.000              0.000
 Translational            0.889              2.981             40.003
 Rotational               0.889              2.981             28.019
 Vibrational             70.874             21.122             12.989
 Vibration     1          0.647              1.810              1.955
 Vibration     2          0.653              1.792              1.861
 Vibration     3          0.681              1.707              1.521
 Vibration     4          0.698              1.659              1.375
 Vibration     5          0.711              1.621              1.274
 Vibration     6          0.812              1.353              0.785
 Vibration     7          0.829              1.311              0.730
 Vibration     8          0.878              1.199              0.603
 Vibration     9          0.894              1.164              0.568
 Vibration    10          0.970              1.010              0.432

 Optimization completed.
    -- Stationary point found.
 Normal termination of Gaussian 16 at Mon Sept 11 21:52:39 2017.
